                         Program Version 4.2.1 -  RELEASE  -
|  1> ! HF 6-31G(d)
|  2> ! Freq
|  3> ! PAL4
|  4>
|  5> *xyz -1 1
|  6> H          0.00000        0.00000        0.00000
|  7> Cl         0.00000        0.00000        1.57000
|  8> Cl         0.00000        0.00000       -1.57000
|  9> *
| 10>
| 11>
| 12>                          ****END OF INPUT****

CARTESIAN COORDINATES (ANGSTROEM)
---------------------------------
  H      0.000000    0.000000    0.000000
  Cl     0.000000    0.000000    1.570000
  Cl     0.000000    0.000000   -1.570000

 Total Charge           Charge          ....   -1
 Multiplicity           Mult            ....    1
 Number of Electrons    NEL             ....   36
 Basis Dimension        Dim             ....   38

ORBITAL ENERGIES
----------------

  NO   OCC          E(Eh)            E(eV)
   0   2.0000    -104.567219     -2845.4187
   1   2.0000    -104.567212     -2845.4185
   2   2.0000     -10.306384      -280.4510
   3   2.0000     -10.306366      -280.4505
   4   2.0000      -7.774379      -211.5516
   5   2.0000      -7.774378      -211.5516
   6   2.0000      -7.772443      -211.4989
   7   2.0000      -7.772443      -211.4989
   8   2.0000      -7.772434      -211.4987
   9   2.0000      -7.772434      -211.4987
  10   2.0000      -0.858769       -23.3683
  11   2.0000      -0.816209       -22.2102
  12   2.0000      -0.394273       -10.7287
  13   2.0000      -0.239985        -6.5303
  14   2.0000      -0.239985        -6.5303
  15   2.0000      -0.222364        -6.0508
  16   2.0000      -0.222364        -6.0508
  17   2.0000      -0.197777        -5.3818
  18   0.0000       0.424736        11.5577
  19   0.0000       0.750042        20.4097
  20   0.0000       0.770310        20.9612
  21   0.0000       0.807650        21.9773
  22   0.0000       0.807650        21.9773

MULLIKEN ATOMIC CHARGES
-----------------------
   0 H :    0.240011
   1 Cl:   -0.620006
   2 Cl:   -0.620006
Sum of atomic charges:   -1.0000000

LOEWDIN ATOMIC CHARGES
----------------------
   0 H :    0.268504
   1 Cl:   -0.634252
   2 Cl:   -0.634252

  Mayer bond orders larger than 0.100000
B(  0-H ,  1-Cl) :   0.4600 B(  0-H ,  2-Cl) :   0.4600

FINAL SINGLE POINT ENERGY      -919.611469520312

DIPOLE MOMENT
-------------
                                X             Y             Z
Electronic contribution:      0.00000       0.00000       0.00000
Nuclear contribution   :      0.00000       0.00000       0.00000
                        -----------------------------------------
Total Dipole Moment    :      0.00000       0.00000       0.00000
                        -----------------------------------------
Magnitude (a.u.)       :      0.00000
Magnitude (Debye)      :      0.00000

VIBRATIONAL FREQUENCIES
-----------------------

Scaling factor for frequencies =  1.000000000  (already applied!)

   0:         0.00 cm**-1
   1:         0.00 cm**-1
   2:         0.00 cm**-1
   3:         0.00 cm**-1
   4:         0.00 cm**-1
   5:      -995.75 cm**-1 ***imaginary mode***
   6:       342.33 cm**-1
   7:       898.31 cm**-1
   8:       898.31 cm**-1

IR SPECTRUM
-----------

 Mode    freq (cm**-1)   T**2         TX         TY         TZ
-------------------------------------------------------------------
   6:       342.33    0.000000  ( -0.000000  -0.000000   0.000000)
   7:       898.31   63.721279  (  7.926203  -0.946884   0.000000)
   8:       898.31   63.721279  (  0.946884   7.926203   0.000000)

--------------------------
THERMOCHEMISTRY AT 298.15K
--------------------------

Temperature         ... 298.15 K
Pressure            ... 1.00 atm
Total Mass          ... 71.91 AMU
The molecule is recognized as being linear

Throughout the following assumptions are being made:
  (1) The electronic state is orbitally nondegenerate
  (2) There are no thermally accessible electronically excited states
  (3) Hindered rotations indicated by low frequency modes are not
      treated as such but are treated as vibrations and this may
      cause some error
  (4) All equations used are the standard statistical mechanics
      equations for an ideal gas
  (5) All vibrations are strictly harmonic

freq.     342.33  E(vib)   ...       0.23
freq.     898.31  E(vib)   ...       0.03
freq.     898.31  E(vib)   ...       0.03

------------
INNER ENERGY
------------

The inner energy is: U= E(el) + E(ZPE) + E(vib) + E(rot) + E(trans)
    E(el)   - is the total energy from the electronic structure calculation
              = E(kin-el) + E(nuc-el) + E(el-el) + E(nuc-nuc)
    E(ZPE)  - the the zero temperature vibrational energy from the frequency calculation
    E(vib)  - the the finite temperature correction to E(ZPE) due to population
              of excited vibrational states
    E(rot)  - is the rotational thermal energy
    E(trans)- is the translational thermal energy

Summary of contributions to the inner energy U:
Electronic energy                ...   -919.61146952 Eh
Zero point energy                ...      0.00487289 Eh       3.06 kcal/mol
Thermal vibrational correction   ...      0.00047857 Eh       0.30 kcal/mol
Thermal rotational correction    ...      0.00094418 Eh       0.59 kcal/mol
Thermal translational correction ...      0.00141627 Eh       0.89 kcal/mol
-----------------------------------------------------------------------
Total thermal energy                   -919.60375761 Eh

Summary of corrections to the electronic energy:
(perhaps to be used in another calculation)
Total thermal correction                  0.00283902 Eh       1.78 kcal/mol
Non-thermal (ZPE) correction              0.00487289 Eh       3.06 kcal/mol
-----------------------------------------------------------------------
Total correction                          0.00771191 Eh       4.84 kcal/mol

--------
ENTHALPY
--------

The enthalpy is H = U + kB*T
                kB is Boltzmann's constant
Total free energy                 ...   -919.60375761 Eh
Thermal Enthalpy correction       ...      0.00094421 Eh       0.59 kcal/mol
-----------------------------------------------------------------------
Total Enthalpy                    ...   -919.60281340 Eh

Note: Rotational entropy computed according to Herzberg
Infrared and Raman Spectra, Chapter V,1, Van Nostrand Reinhold, 1945
Point Group:  Dinfh, Symmetry Number:   2
Rotational constants in cm-1:     0.000000     0.096453     0.096453

Vibrational entropy computed according to the QRRHO of S. Grimme
Chem.Eur.J. 2012 18 9955

-------
ENTROPY
-------

The entropy contributions are T*S = T*(S(el)+S(vib)+S(rot)+S(trans))
     S(el)   - electronic entropy
     S(vib)  - vibrational entropy
     S(rot)  - rotational entropy
     S(trans)- translational entropy
The entropies will be listed as mutliplied by the temperature to get
units of energy

Electronic entropy                ...      0.00000000 Eh      0.00 kcal/mol
Vibrational entropy               ...      0.00070594 Eh      0.44 kcal/mol
Rotational entropy                ...      0.00753396 Eh      4.73 kcal/mol
Translational entropy             ...      0.01840430 Eh     11.55 kcal/mol
-----------------------------------------------------------------------
Final entropy term                ...      0.02664421 Eh     16.72 kcal/mol

In case the symmetry of your molecule has not been determined correctly
or in case you have a reason to use a different symmetry number we print
out the resulting rotational entropy values for sn=1,12 :
 --------------------------------------------------------
|  sn= 1 | S(rot)=             -inf Eh      -inf kcal/mol|
|  sn= 2 | S(rot)=             -inf Eh      -inf kcal/mol|
|  sn= 3 | S(rot)=             -inf Eh      -inf kcal/mol|
|  sn= 4 | S(rot)=             -inf Eh      -inf kcal/mol|
|  sn= 5 | S(rot)=             -inf Eh      -inf kcal/mol|
|  sn= 6 | S(rot)=             -inf Eh      -inf kcal/mol|
|  sn= 7 | S(rot)=             -inf Eh      -inf kcal/mol|
|  sn= 8 | S(rot)=             -inf Eh      -inf kcal/mol|
|  sn= 9 | S(rot)=             -inf Eh      -inf kcal/mol|
|  sn=10 | S(rot)=             -inf Eh      -inf kcal/mol|
|  sn=11 | S(rot)=             -inf Eh      -inf kcal/mol|
|  sn=12 | S(rot)=             -inf Eh      -inf kcal/mol|
 --------------------------------------------------------

-------------------
GIBBS FREE ENERGY
-------------------

The Gibbs free energy is G = H - T*S

Total enthalpy                    ...   -919.60281340 Eh
Total entropy correction          ...     -0.02664421 Eh    -16.72 kcal/mol
-----------------------------------------------------------------------
Final Gibbs free energy         ...   -919.62945760 Eh

For completeness - the Gibbs free energy minus the electronic energy
G-E(el)                           ...     -0.01798808 Eh    -11.29 kcal/mol

                             ****ORCA TERMINATED NORMALLY****
TOTAL RUN TIME: 0 days 0 hours 0 minutes 4 seconds 477 msec
