                         Program Version 4.2.1 -  RELEASE  -
|  1> ! HF 6-31G(d)
|  2> ! Freq
|  3> ! PAL4
|  4>
|  5> *xyz -1 1
|  6> H          0.00000        0.00000       -0.313232
|  7> Cl         0.00000        0.00000        1.672750
|  8> Cl         0.00000        0.00000       -1.654325
|  9> *
| 10>
| 11>                          ****END OF INPUT****

CARTESIAN COORDINATES (ANGSTROEM)
---------------------------------
  H      0.000000    0.000000   -0.313232
  Cl     0.000000    0.000000    1.672750
  Cl     0.000000    0.000000   -1.654325

 Total Charge           Charge          ....   -1
 Multiplicity           Mult            ....    1
 Number of Electrons    NEL             ....   36
 Basis Dimension        Dim             ....   38

ORBITAL ENERGIES
----------------

  NO   OCC          E(Eh)            E(eV)
   0   2.0000    -104.627376     -2847.0556
   1   2.0000    -104.517987     -2844.0790
   2   2.0000     -10.369085      -282.1572
   3   2.0000     -10.253315      -279.0069
   4   2.0000      -7.837641      -213.2731
   5   2.0000      -7.834629      -213.1911
   6   2.0000      -7.834629      -213.1911
   7   2.0000      -7.720944      -210.0976
   8   2.0000      -7.720154      -210.0761
   9   2.0000      -7.720154      -210.0761
  10   2.0000      -0.916822       -24.9480
  11   2.0000      -0.767895       -20.8955
  12   2.0000      -0.427804       -11.6411
  13   2.0000      -0.287593        -7.8258
  14   2.0000      -0.287593        -7.8258
  15   2.0000      -0.180409        -4.9092
  16   2.0000      -0.180213        -4.9038
  17   2.0000      -0.180213        -4.9038
  18   0.0000       0.414563        11.2808
  19   0.0000       0.727332        19.7917
  20   0.0000       0.750060        20.4102
  21   0.0000       0.789411        21.4810
  22   0.0000       0.789411        21.4810

MULLIKEN ATOMIC CHARGES
-----------------------
   0 H :    0.286390
   1 Cl:   -0.847766
   2 Cl:   -0.438624
Sum of atomic charges:   -1.0000000

LOEWDIN ATOMIC CHARGES
----------------------
   0 H :    0.252418
   1 Cl:   -0.857569
   2 Cl:   -0.394849

  Mayer bond orders larger than 0.100000
B(  0-H ,  1-Cl) :   0.2273 B(  0-H ,  2-Cl) :   0.6971

FINAL SINGLE POINT ENERGY      -919.614382355786

DIPOLE MOMENT
-------------
                                X             Y             Z
Electronic contribution:      0.00000       0.00000      -1.16027
Nuclear contribution   :      0.00000       0.00000      -0.31040
                        -----------------------------------------
Total Dipole Moment    :      0.00000       0.00000      -1.47067
                        -----------------------------------------
Magnitude (a.u.)       :      1.47067
Magnitude (Debye)      :      3.73815

VIBRATIONAL FREQUENCIES
-----------------------

Scaling factor for frequencies =  1.000000000  (already applied!)

   0:         0.00 cm**-1
   1:         0.00 cm**-1
   2:         0.00 cm**-1
   3:         0.00 cm**-1
   4:         0.00 cm**-1
   5:       175.50 cm**-1
   6:       715.55 cm**-1
   7:       715.55 cm**-1
   8:      2083.50 cm**-1

IR SPECTRUM
-----------

 Mode    freq (cm**-1)   T**2         TX         TY         TZ
-------------------------------------------------------------------
   5:       175.50   83.164216  (  0.000000  -0.000000  -9.119442)
   6:       715.55   68.515989  (  0.536501  -8.260034  -0.000000)
   7:       715.55   68.515989  (  8.260034   0.536501  -0.000000)
   8:      2083.50  3293.441965  (  0.000000  -0.000000 -57.388518)

--------------------------
THERMOCHEMISTRY AT 298.15K
--------------------------

Temperature         ... 298.15 K
Pressure            ... 1.00 atm
Total Mass          ... 71.91 AMU
The molecule is recognized as being linear

Throughout the following assumptions are being made:
  (1) The electronic state is orbitally nondegenerate
  (2) There are no thermally accessible electronically excited states
  (3) Hindered rotations indicated by low frequency modes are not
      treated as such but are treated as vibrations and this may
      cause some error
  (4) All equations used are the standard statistical mechanics
      equations for an ideal gas
  (5) All vibrations are strictly harmonic

freq.     175.50  E(vib)   ...       0.38
freq.     715.55  E(vib)   ...       0.07
freq.     715.55  E(vib)   ...       0.07
freq.    2083.50  E(vib)   ...       0.00

------------
INNER ENERGY
------------

The inner energy is: U= E(el) + E(ZPE) + E(vib) + E(rot) + E(trans)
    E(el)   - is the total energy from the electronic structure calculation
              = E(kin-el) + E(nuc-el) + E(el-el) + E(nuc-nuc)
    E(ZPE)  - the the zero temperature vibrational energy from the frequency calculation
    E(vib)  - the the finite temperature correction to E(ZPE) due to population
              of excited vibrational states
    E(rot)  - is the rotational thermal energy
    E(trans)- is the translational thermal energy

Summary of contributions to the inner energy U:
Electronic energy                ...   -919.61438236 Eh
Zero point energy                ...      0.00840667 Eh       5.28 kcal/mol
Thermal vibrational correction   ...      0.00081371 Eh       0.51 kcal/mol
Thermal rotational correction    ...      0.00094418 Eh       0.59 kcal/mol
Thermal translational correction ...      0.00141627 Eh       0.89 kcal/mol
-----------------------------------------------------------------------
Total thermal energy                   -919.60280152 Eh

Summary of corrections to the electronic energy:
(perhaps to be used in another calculation)
Total thermal correction                  0.00317416 Eh       1.99 kcal/mol
Non-thermal (ZPE) correction              0.00840667 Eh       5.28 kcal/mol
-----------------------------------------------------------------------
Total correction                          0.01158084 Eh       7.27 kcal/mol

--------
ENTHALPY
--------

The enthalpy is H = U + kB*T
                kB is Boltzmann's constant
Total free energy                 ...   -919.60280152 Eh
Thermal Enthalpy correction       ...      0.00094421 Eh       0.59 kcal/mol
-----------------------------------------------------------------------
Total Enthalpy                    ...   -919.60185731 Eh

Note: Rotational entropy computed according to Herzberg
Infrared and Raman Spectra, Chapter V,1, Van Nostrand Reinhold, 1945
Point Group:  Cinfv, Symmetry Number:   1
Rotational constants in cm-1:     0.000000     0.085866     0.085866

Vibrational entropy computed according to the QRRHO of S. Grimme
Chem.Eur.J. 2012 18 9955

-------
ENTROPY
-------

The entropy contributions are T*S = T*(S(el)+S(vib)+S(rot)+S(trans))
     S(el)   - electronic entropy
     S(vib)  - vibrational entropy
     S(rot)  - rotational entropy
     S(trans)- translational entropy
The entropies will be listed as mutliplied by the temperature to get
units of energy

Electronic entropy                ...      0.00000000 Eh      0.00 kcal/mol
Vibrational entropy               ...      0.00139975 Eh      0.88 kcal/mol
Rotational entropy                ...      0.00829820 Eh      5.21 kcal/mol
Translational entropy             ...      0.01840430 Eh     11.55 kcal/mol
-----------------------------------------------------------------------
Final entropy term                ...      0.02810225 Eh     17.63 kcal/mol

In case the symmetry of your molecule has not been determined correctly
or in case you have a reason to use a different symmetry number we print
out the resulting rotational entropy values for sn=1,12 :
 --------------------------------------------------------
|  sn= 1 | S(rot)=             -inf Eh      -inf kcal/mol|
|  sn= 2 | S(rot)=             -inf Eh      -inf kcal/mol|
|  sn= 3 | S(rot)=             -inf Eh      -inf kcal/mol|
|  sn= 4 | S(rot)=             -inf Eh      -inf kcal/mol|
|  sn= 5 | S(rot)=             -inf Eh      -inf kcal/mol|
|  sn= 6 | S(rot)=             -inf Eh      -inf kcal/mol|
|  sn= 7 | S(rot)=             -inf Eh      -inf kcal/mol|
|  sn= 8 | S(rot)=             -inf Eh      -inf kcal/mol|
|  sn= 9 | S(rot)=             -inf Eh      -inf kcal/mol|
|  sn=10 | S(rot)=             -inf Eh      -inf kcal/mol|
|  sn=11 | S(rot)=             -inf Eh      -inf kcal/mol|
|  sn=12 | S(rot)=             -inf Eh      -inf kcal/mol|
 --------------------------------------------------------

-------------------
GIBBS FREE ENERGY
-------------------

The Gibbs free energy is G = H - T*S

Total enthalpy                    ...   -919.60185731 Eh
Total entropy correction          ...     -0.02810225 Eh    -17.63 kcal/mol
-----------------------------------------------------------------------
Final Gibbs free energy         ...   -919.62995956 Eh

For completeness - the Gibbs free energy minus the electronic energy
G-E(el)                           ...     -0.01557720 Eh     -9.77 kcal/mol

                             ****ORCA TERMINATED NORMALLY****
TOTAL RUN TIME: 0 days 0 hours 0 minutes 4 seconds 308 msec
